4
	Energy:       3.3581337
C         -3.95543        1.49868        1.37463
C         -3.08101        2.29277        0.40401
C         -1.61255        1.83936        0.39627
C         -1.42295        0.40748       -0.10478
